<?xml version="1.0"?>
<VTKFile type="UnstructuredGrid" version="0.1">
 <UnstructuredGrid>
  <Piece NumberOfPoints="6" NumberOfCells="6">
     
   <Points>
    <DataArray type="Float64" NumberOfComponents="3" format="ascii">
     0.75 0.00 0.00
     1.00 0.00 0.00
     0.75 0.25 0.00
     1.00 0.25 0.00
     0.75 0.50 0.00
     1.00 0.50 0.00
    </DataArray>  
   </Points>
   
   <Cells>
    <DataArray type="UInt32" Name="connectivity" format="ascii">
     0 1 2 3 4 5
    </DataArray>
    <DataArray type="UInt32" Name="offsets" format="ascii">
     1 2 3 4 5 6
    </DataArray>
    <DataArray type="UInt8" Name="types" format="ascii">
     1 1 1 1 1 1
    </DataArray>
   </Cells>
   
   <PointData>
    <DataArray type="Float64" Name="Temperature" NumberOfComponents="1" format="ascii">
     3.0000 4.0000
     3.1623 4.1231
     3.6056 4.4721
    </DataArray>
   </PointData>
   
  </Piece>
 </UnstructuredGrid>
</VTKFile>