<?xml version="1.0"?>
<VTKFile type="UnstructuredGrid" version="0.1">
 <UnstructuredGrid>
  <Piece NumberOfPoints="4" NumberOfCells="4">
     
   <Points>
    <DataArray type="Float64" NumberOfComponents="3" format="ascii">
     0.75 0.75 0.00
     1.00 0.75 0.00
     0.75 1.00 0.00
     1.00 1.00 0.00
    </DataArray>  
   </Points>
   
   <Cells>
    <DataArray type="UInt32" Name="connectivity" format="ascii">
     0 1 2 3
    </DataArray>
    <DataArray type="UInt32" Name="offsets" format="ascii">
     1 2 3 4
    </DataArray>
    <DataArray type="UInt8" Name="types" format="ascii">
     1 1 1 1
    </DataArray>
   </Cells>
   
   <PointData>
    <DataArray type="Float64" Name="Temperature" NumberOfComponents="1" format="ascii">
     5.2426 6.0000
     6.0000 6.6569
    </DataArray>
   </PointData>
   
  </Piece>
 </UnstructuredGrid>
</VTKFile>